********************************************************************************
*                       GENERAL UTILITY LATTICE PROGRAM                        *
*                                 Julian Gale                                  *
*                       Curtin Institute for Computation                       *
*                    School of Molecular and Life Sciences                     *
*                    Curtin University, Western Australia                      *
********************************************************************************
* Version = 6.1.2 * Last modified =   3rd November 2022                        *
********************************************************************************

  Ewald parameters :  Eta               =     0.141053 Angs-2
                      Real space radius =    13.996121 Angs
                      Recip space radius=     3.948383 Angs-1

  Reciprocal lattice vectors :

   1.25664     0.00000     0.00000
   0.00000     1.25664     0.00000
   0.00000     0.00000     1.25664

  Ewald parameters :  Eta               =     0.141053 Angs-2
                      Real space radius =    13.996121 Angs
                      Recip space radius=     3.948383 Angs-1

  Reciprocal lattice vectors :

   1.25664     0.00000     0.00000
   0.00000     1.25664     0.00000
   0.00000     0.00000     1.25664

  Ewald parameters :  Eta               =     0.141053 Angs-2
                      Real space radius =    13.996121 Angs
                      Recip space radius=     3.948383 Angs-1

  Reciprocal lattice vectors :

   1.25664     0.00000     0.00000
   0.00000     1.25664     0.00000
   0.00000     0.00000     1.25664
*  single       - perform a single point run                                   *
*  nosymmetry   - turn off symmetry after initial structure generation         *
*  full         - generate full unit cell when symmetry is removed             *
********************************************************************************
* Example of defect impurity calc : Li substituted into MgO                    *
********************************************************************************


  Job Started  at 17:20.41 18th August     2023                               

  Number of CPUs =     1


  Total number of configurations input =      1

  Ewald parameters :  Eta               =     0.141053 Angs-2
                      Real space radius =    13.996121 Angs
                      Recip space radius=     3.948383 Angs-1

  Reciprocal lattice vectors :

   1.25664     0.00000     0.00000
   0.00000     1.25664     0.00000
   0.00000     0.00000     1.25664

  Ewald parameters :  Eta               =     0.150914 Angs-2
                      Real space radius =    13.531110 Angs
                      Recip space radius=     4.084073 Angs-1

  Reciprocal lattice vectors :

   1.25664     0.00000     0.00000
   0.00000     1.25664     0.00000
   0.00000     0.00000     1.25664

  Ewald parameters :  Eta               =     0.150914 Angs-2
                      Real space radius =    13.531110 Angs
                      Recip space radius=     4.084073 Angs-1

  Reciprocal lattice vectors :

   1.25664     0.00000     0.00000
   0.00000     1.25664     0.00000
   0.00000     0.00000     1.25664

  Ewald parameters :  Eta               =     0.150914 Angs-2
                      Real space radius =    13.531110 Angs
                      Recip space radius=     4.084073 Angs-1

  Reciprocal lattice vectors :

   1.25664     0.00000     0.00000
   0.00000     1.25664     0.00000
   0.00000     0.00000     1.25664

  Ewald parameters :  Eta               =     0.150914 Angs-2
                      Real space radius =    13.531110 Angs
                      Recip space radius=     4.084073 Angs-1

  Reciprocal lattice vectors :

   1.25664     0.00000     0.00000
   0.00000     1.25664     0.00000
   0.00000     0.00000     1.25664

********************************************************************************
*  Input for Configuration =   1                                               *
********************************************************************************

  Formula = OMg                                                         

  Number of irreducible atoms/shells =       3


  Total number atoms/shells =       3

  Dimensionality = 3               :  Bulk   



  Cartesian lattice vectors (Angstroms) :

        5.000000    0.000000    0.000000
        0.000000    5.000000    0.000000
        0.000000    0.000000    5.000000

  Cell parameters (Angstroms/Degrees):

  a =       5.0000    alpha =  90.0000
  b =       5.0000    beta  =  90.0000
  c =       5.0000    gamma =  90.0000

  Initial cell volume =         125.000000 Angs**3

  Temperature of configuration =   0.00     K 

  Pressure of configuration =         0.000 GPa 

  Fractional coordinates of asymmetric unit :

--------------------------------------------------------------------------------
   No.  Atomic       x           y          z         Charge      Occupancy
        Label      (Frac)      (Frac)     (Frac)        (e)         (Frac)  
--------------------------------------------------------------------------------
      1 O     c    0.500000    0.500000    0.500000    -2.00000    1.000000    
      2 Mg    c    0.000000    0.000000    0.000000     2.00000    1.000000    
      3 O     s    0.500000    0.500000    0.500000     0.00000    1.000000    
--------------------------------------------------------------------------------



********************************************************************************
*  General input information                                                   *
********************************************************************************

  Species output for all configurations : 

--------------------------------------------------------------------------------
  Species    Type    Atomic    Atomic    Charge       Radii (Angs)     Library
                     Number     Mass       (e)     Cova   Ionic  VDW   Symbol
--------------------------------------------------------------------------------
    O        Core        8      16.00  -2.000000   0.730  0.000  1.360          
    Mg       Core       12      24.31   2.000000   1.100  0.000  1.640          
    O        Shell       8       0.00   0.000000   0.730  0.000  0.000          
    Li       Core        3       0.00   0.000000   0.680  0.000  0.000          
--------------------------------------------------------------------------------


  Lattice summation method               =    Ewald          (3-D)
                                         =    Parry          (2-D)
                                         =    Saunders et al (1-D)
  Accuracy factor for lattice sums       =   12.000


  Analytic derivatives to be used

  Time limit = Infinity

  Maximum range for interatomic potentials =    100000.000000 Angstroms

  General interatomic potentials :

--------------------------------------------------------------------------------
Atom  Types   Potential      Parameter       Value         Units   Cutoffs(Ang)
  1     2                                                            Min /  Max 
--------------------------------------------------------------------------------
Mg   c O    s Buckingham    Buckingham A     1280.0000    eV        0.000  8.000
                            Buckingham rho  0.30000000    Ang       
                            Buckingham C     0.0000000    eV*Ang^6  
--------------------------------------------------------------------------------
Li   c O    s Buckingham    Buckingham A     816.30000    eV        0.000  8.000
                            Buckingham rho  0.26086000    Ang       
                            Buckingham C     0.0000000    eV*Ang^6  
--------------------------------------------------------------------------------
O    s O    s Buckingham    Buckingham A     1280.0000    eV        0.000 10.000
                            Buckingham rho  0.30000000    Ang       
                            Buckingham C     27.880000    eV*Ang^6  
--------------------------------------------------------------------------------
O    c O    s Spring (c-s)  Spring k 2       74.920000    eV*Ang^-2 0.000  0.800
                            Spring k 4       0.0000000    eV*Ang^-4 
--------------------------------------------------------------------------------

********************************************************************************
*  Output for configuration   1                                                *
********************************************************************************


  Ewald parameters :  Eta               =     0.150914 Angs-2
                      Real space radius =    13.531110 Angs
                      Recip space radius=     4.084073 Angs-1

  Reciprocal lattice vectors :

   1.25664     0.00000     0.00000
   0.00000     1.25664     0.00000
   0.00000     0.00000     1.25664

  Ewald parameters :  Eta               =     0.150914 Angs-2
                      Real space radius =    13.531110 Angs
                      Recip space radius=     4.084073 Angs-1

  Reciprocal lattice vectors :

   1.25664     0.00000     0.00000
   0.00000     1.25664     0.00000
   0.00000     0.00000     1.25664

  Components of energy : 

--------------------------------------------------------------------------------
  Interatomic potentials     =          -0.00129865 eV    
  Monopole - monopole (real) =          -1.42269840 eV    
  Monopole - monopole (recip)=         -22.02427279 eV    
  Monopole - monopole (total)=         -23.44697119 eV    
--------------------------------------------------------------------------------
  Total lattice energy       =         -23.44826984 eV    
--------------------------------------------------------------------------------
  Total lattice energy       =           -2262.3996 kJ/(mole unit cells)
--------------------------------------------------------------------------------

  Peak dynamic memory used =       1.79 MB 


  Timing analysis for GULP :

--------------------------------------------------------------------------------
  Task / Subroutine                                          Time (Seconds)
--------------------------------------------------------------------------------
--------------------------------------------------------------------------------
  Total CPU time                                                  0.0042
--------------------------------------------------------------------------------


  Job Finished at 17:20.41 18th August     2023                               

