********************************************************************************
*                       GENERAL UTILITY LATTICE PROGRAM                        *
*                                 Julian Gale                                  *
*                       Curtin Institute for Computation                       *
*                    School of Molecular and Life Sciences                     *
*                    Curtin University, Western Australia                      *
********************************************************************************
* Version = 6.1.2 * Last modified =   3rd November 2022                        *
********************************************************************************
*  gradient     - perform gradient run                                         *
*  conp         - constant pressure calculation                                *
*  nosymmetry   - turn off symmetry after initial structure generation         *
********************************************************************************

  Job Started  at 15:11.45 14th September  2023                               

  Number of CPUs =     1


  Total number of configurations input =      1

********************************************************************************
*  Input for Configuration =   1                                               *
********************************************************************************

  Formula = OMg                                                         

  Number of irreducible atoms/shells =       3


  Total number atoms/shells =       3

  Dimensionality = 3               :  Bulk   



  Cartesian lattice vectors (Angstroms) :

        4.000000    0.000000    0.000000
        0.000000    5.000000    0.000000
        3.000000    0.000000    5.196152

  Cell parameters (Angstroms/Degrees):

  a =       4.0000    alpha =  90.0000
  b =       5.0000    beta  =  60.0000
  c =       6.0000    gamma =  90.0000

  Initial cell volume =         103.923048 Angs**3

  Temperature of configuration =   0.00     K 

  Pressure of configuration =         0.000 GPa 

  Fractional coordinates of asymmetric unit :

--------------------------------------------------------------------------------
   No.  Atomic       x           y          z         Charge      Occupancy
        Label      (Frac)      (Frac)     (Frac)        (e)         (Frac)  
--------------------------------------------------------------------------------
      1 O     c    0.500000    0.500000    0.500000     0.86902    1.000000    
      2 Mg    c    0.000000 *  0.000000 *  0.000000 *   2.00000    1.000000    
      3 O     s    0.490000 *  0.490000 *  0.490000 *  -2.86902    1.000000    
--------------------------------------------------------------------------------



********************************************************************************
*  General input information                                                   *
********************************************************************************

  Species output for all configurations : 

--------------------------------------------------------------------------------
  Species    Type    Atomic    Atomic    Charge       Radii (Angs)     Library
                     Number     Mass       (e)     Cova   Ionic  VDW   Symbol
--------------------------------------------------------------------------------
    O        Core        8      16.00   0.869020   0.730  0.000  1.360          
    O        Shell       8       0.00  -2.869020   0.730  0.000  1.360          
    Mg       Core       12      24.31   2.000000   1.100  0.000  1.640          
--------------------------------------------------------------------------------


  Lattice summation method               =    Ewald          (3-D)
                                         =    Parry          (2-D)
                                         =    Saunders et al (1-D)
  Accuracy factor for lattice sums       =   12.000


  Analytic derivatives to be used

  Time limit = Infinity

  Maximum range for interatomic potentials =    100000.000000 Angstroms

  General interatomic potentials :

--------------------------------------------------------------------------------
Atom  Types   Potential      Parameter       Value         Units   Cutoffs(Ang)
  1     2                                                            Min /  Max 
--------------------------------------------------------------------------------
Mg   c O    s Buckingham    Buckingham A     946.62700    eV        0.000 10.000
                            Buckingham rho  0.31813000    Ang       
                            Buckingham C     0.0000000    eV*Ang^6  
--------------------------------------------------------------------------------
O    c O    s Spring (c-s)  Spring k 2       74.920000    eV*Ang^-2 0.000  0.800
                            Spring k 4       0.0000000    eV*Ang^-4 
--------------------------------------------------------------------------------

********************************************************************************
*  Output for configuration   1                                                *
********************************************************************************


  Components of energy : 

--------------------------------------------------------------------------------
  Interatomic potentials     =           0.41982804 eV    
  Monopole - monopole (real) =          15.12032406 eV    
  Monopole - monopole (recip)=         -39.49880065 eV    
  Monopole - monopole (total)=         -24.37847659 eV    
--------------------------------------------------------------------------------
  Total lattice energy       =         -23.95864855 eV    
--------------------------------------------------------------------------------
  Total lattice energy       =           -2311.6433 kJ/(mole unit cells)
--------------------------------------------------------------------------------


  Final Cartesian lattice vectors (Angstroms) :

        4.000000    0.000000    0.000000
        0.000000    5.000000    0.000000
        3.000000    0.000000    5.196152


  Final cell parameters and derivatives :

--------------------------------------------------------------------------------
       a            4.000000 Angstrom     dE/de1(xx)    -5.676904 eV/strain
       b            5.000000 Angstrom     dE/de2(yy)    13.450129 eV/strain
       c            6.000000 Angstrom     dE/de3(zz)    16.885284 eV/strain
       alpha       90.000000 Degrees      dE/de4(yz)     0.210786 eV/strain
       beta        60.000000 Degrees      dE/de5(xz)    -0.771547 eV/strain
       gamma       90.000000 Degrees      dE/de6(xy)     0.240643 eV/strain
--------------------------------------------------------------------------------

  Primitive cell volume =           103.923048 Angs**3

  Density of cell =      0.644105 g/cm**3

  Non-primitive cell volume =           103.923048 Angs**3


  Final internal derivatives :

--------------------------------------------------------------------------------
   No.  Atomic          a             b             c           Radius
        Label          (eV)          (eV)          (eV)        (eV/Angs)
--------------------------------------------------------------------------------
      1 O     c       0.000000      0.000000      0.000000      0.000000
      2 Mg    c       0.443659     -1.236980     -0.927365      0.000000
      3 O     s     -20.679792    -17.252331    -34.296002      0.000000
--------------------------------------------------------------------------------
  Maximum abs        20.679792     17.252331     34.296002      0.000000
--------------------------------------------------------------------------------


  Time to end of gradients =       0.0038 seconds


  Peak dynamic memory used =       1.78 MB 


  Timing analysis for GULP :

--------------------------------------------------------------------------------
  Task / Subroutine                                          Time (Seconds)
--------------------------------------------------------------------------------
  Calculation of real space energy and derivatives                0.0001
--------------------------------------------------------------------------------
  Total CPU time                                                  0.0038
--------------------------------------------------------------------------------


  Job Finished at 15:11.45 14th September  2023                               

