********************************************************************************
*                       GENERAL UTILITY LATTICE PROGRAM                        *
*                                 Julian Gale                                  *
*                       Curtin Institute for Computation                       *
*                    School of Molecular and Life Sciences                     *
*                    Curtin University, Western Australia                      *
********************************************************************************
* Version = 6.1.2 * Last modified =   3rd November 2022                        *
********************************************************************************
*  optimise     - perform optimisation run                                     *
*  conp         - constant pressure calculation                                *
********************************************************************************

  Job Started  at 13:37.37 16th October    2023                               

  Number of CPUs =     1


  Total number of configurations input =      1

********************************************************************************
*  Input for Configuration =   1                                               *
********************************************************************************

  Formula = OMg                                                         

  Number of irreducible atoms/shells =       2


  Total number atoms/shells =       2

  Dimensionality = 3               :  Bulk   



  Cartesian lattice vectors (Angstroms) :

        5.000000    0.000000    0.000000
        0.000000    5.000000    0.000000
        0.000000    0.000000    5.000000

  Cell parameters (Angstroms/Degrees):

  a =       5.0000    alpha =  90.0000
  b =       5.0000    beta  =  90.0000
  c =       5.0000    gamma =  90.0000

  Initial cell volume =         125.000000 Angs**3

  Temperature of configuration =   0.00     K 

  Pressure of configuration =         0.000 GPa 

  Fractional coordinates of asymmetric unit :

--------------------------------------------------------------------------------
   No.  Atomic       x           y          z         Charge      Occupancy
        Label      (Frac)      (Frac)     (Frac)        (e)         (Frac)  
--------------------------------------------------------------------------------
      1 O     c    0.500000    0.500000    0.500000     0.00000    1.000000    
      2 Mg    c    0.000000 *  0.000000 *  0.000000 *   0.00000    1.000000    
--------------------------------------------------------------------------------



********************************************************************************
*  General input information                                                   *
********************************************************************************

  Species output for all configurations : 

--------------------------------------------------------------------------------
  Species    Type    Atomic    Atomic    Charge       Radii (Angs)     Library
                     Number     Mass       (e)     Cova   Ionic  VDW   Symbol
--------------------------------------------------------------------------------
    O        Core        8      16.00   0.000000   0.730  0.000  1.360          
    Mg       Core       12      24.31   0.000000   1.100  0.000  1.640          
--------------------------------------------------------------------------------


  Lattice summation method               =    Ewald          (3-D)
                                         =    Parry          (2-D)
                                         =    Saunders et al (1-D)
  Accuracy factor for lattice sums       =   12.000


  Analytic derivatives to be used

  Time limit = Infinity

  Maximum range for interatomic potentials =    100000.000000 Angstroms

  General interatomic potentials :

--------------------------------------------------------------------------------
Atom  Types   Potential      Parameter       Value         Units   Cutoffs(Ang)
  1     2                                                            Min /  Max 
--------------------------------------------------------------------------------
O    c Mg   c Buckingham    Buckingham A     946.62700    eV        0.000 10.000
                            Buckingham rho  0.31813000    Ang       
                            Buckingham C     0.0000000    eV*Ang^6  
--------------------------------------------------------------------------------

********************************************************************************
*  Output for configuration   1                                                *
********************************************************************************


  Components of energy : 

--------------------------------------------------------------------------------
  Interatomic potentials     =           0.00928989 eV    
  Monopole - monopole (real) =           0.00000000 eV    
  Monopole - monopole (recip)=           0.00000000 eV    
  Monopole - monopole (total)=           0.00000000 eV    
--------------------------------------------------------------------------------
  Total lattice energy       =           0.00928989 eV    
--------------------------------------------------------------------------------
  Total lattice energy       =               0.8963 kJ/(mole unit cells)
--------------------------------------------------------------------------------


  Number of variables =        9

  Maximum number of calculations  =          1000
  Maximum Hessian update interval =            10
  Maximum step size               =   1.000000000
  Maximum parameter tolerance     =   0.000010000
  Maximum function  tolerance     =   0.000010000
  Maximum gradient  tolerance     =   0.001000000
  Maximum gradient  component     =   0.010000000

  Symmetry not applied to optimisation

  Cell parameters to be optimised using strains

  Newton-Raphson optimiser to be used

  BFGS hessian update to be used

  Lower half triangular hessian to be used

  Start of bulk optimisation :



  Strain-strain second derivative matrix : (eV)

     0.12100     0.20528     0.20528     0.00000     0.00000    -0.00000
     0.20528     0.12100     0.20528     0.00000     0.00000    -0.00000
     0.20528     0.20528     0.12100     0.00000     0.00000     0.00000
     0.00000     0.00000     0.00000     0.16313     0.00000     0.00000
     0.00000     0.00000     0.00000     0.00000     0.16313     0.00000
    -0.00000    -0.00000     0.00000     0.00000     0.00000     0.16313


  Internal-internal second derivative matrix : (eV/Angstrom**2)

     0.02610     0.00000     0.00000    -0.02610    -0.00000     0.00000
     0.00000     0.02610     0.00000    -0.00000    -0.02610     0.00000
     0.00000     0.00000     0.02610     0.00000     0.00000    -0.02610
    -0.02610    -0.00000     0.00000     0.02610     0.00000     0.00000
    -0.00000    -0.02610     0.00000     0.00000     0.02610     0.00000
     0.00000     0.00000    -0.02610     0.00000     0.00000     0.02610


  Cycle:      0 Energy:         0.009290  Gnorm:      0.008112  CPU:    0.004

  Second Derivative Matrix  :

     0.0261   0.0000   0.0000  -0.0261  -0.0000   0.0000
     0.0000   0.0261   0.0000  -0.0000  -0.0261   0.0000
     0.0000   0.0000   0.0261   0.0000   0.0000  -0.0261
    -0.0261  -0.0000   0.0000   0.0261   0.0000   0.0000
    -0.0000  -0.0261   0.0000   0.0000   0.0261   0.0000
     0.0000   0.0000  -0.0261   0.0000   0.0000   0.0261



  Symmetrised Second Derivative Matrix  :

     0.6525
     0.0000   0.6525
     0.0000   0.0000   0.6525
    -0.0000   0.0000   0.0000   0.1210
     0.0000  -0.0000   0.0000   0.2053   0.1210
     0.0000  -0.0000   0.0000   0.2053   0.2053   0.1210
     0.0000   0.0000  -0.0000   0.0000   0.0000   0.0000   0.1631
     0.0000   0.0000   0.0000   0.0000   0.0000   0.0000   0.0000   0.1631
     0.0000   0.0000   0.0000  -0.0000  -0.0000   0.0000   0.0000   0.0000   0.1631


  ** Hessian calculated **
  Cycle:      1 Energy:         0.001669  Gnorm:      0.001641  CPU:    0.004
  Cycle:      2 Energy:         0.000296  Gnorm:      0.000324  CPU:    0.004
  Cycle:      3 Energy:         0.000054  Gnorm:      0.000065  CPU:    0.004
  Cycle:      4 Energy:         0.000010  Gnorm:      0.000013  CPU:    0.004


  **** Optimisation achieved ****


  Final energy =       0.00000182 eV      
  Final Gnorm  =       0.00000258

  Components of energy : 

--------------------------------------------------------------------------------
  Interatomic potentials     =           0.00000182 eV    
  Monopole - monopole (real) =           0.00000000 eV    
  Monopole - monopole (recip)=           0.00000000 eV    
  Monopole - monopole (total)=           0.00000000 eV    
--------------------------------------------------------------------------------
  Total lattice energy       =           0.00000182 eV    
--------------------------------------------------------------------------------
  Total lattice energy       =               0.0002 kJ/(mole unit cells)
--------------------------------------------------------------------------------

  Final fractional coordinates of atoms :

--------------------------------------------------------------------------------
   No.  Atomic        x           y          z          Radius
        Label       (Frac)      (Frac)     (Frac)       (Angs) 
--------------------------------------------------------------------------------
     1  O     c     0.500000    0.500000    0.500000    0.000000
     2  Mg    c     0.000000    0.000000    0.000000    0.000000
--------------------------------------------------------------------------------

  Final Cartesian lattice vectors (Angstroms) :

        8.136884    0.000000   -0.000000
        0.000000    8.136884   -0.000000
       -0.000000   -0.000000    8.136884


  Final cell parameters and derivatives :

--------------------------------------------------------------------------------
       a            8.136884 Angstrom     dE/de1(xx)    -0.000013 eV/strain
       b            8.136884 Angstrom     dE/de2(yy)    -0.000013 eV/strain
       c            8.136884 Angstrom     dE/de3(zz)    -0.000013 eV/strain
       alpha       90.000000 Degrees      dE/de4(yz)     0.000000 eV/strain
       beta        90.000000 Degrees      dE/de5(xz)     0.000000 eV/strain
       gamma       90.000000 Degrees      dE/de6(xy)     0.000000 eV/strain
--------------------------------------------------------------------------------

  Primitive cell volume =           538.734064 Angs**3

  Density of cell =      0.124249 g/cm**3

  Non-primitive cell volume =           538.734064 Angs**3


  Final internal derivatives :

--------------------------------------------------------------------------------
   No.  Atomic          a             b             c           Radius
        Label          (eV)          (eV)          (eV)        (eV/Angs)
--------------------------------------------------------------------------------
      1 O     c       0.000000      0.000000      0.000000      0.000000
      2 Mg    c       0.000000      0.000000      0.000000      0.000000
--------------------------------------------------------------------------------
  Maximum abs         0.000000      0.000000      0.000000      0.000000
--------------------------------------------------------------------------------


  Time to end of optimisation =       0.0044 seconds


  Peak dynamic memory used =       1.78 MB 


  Timing analysis for GULP :

--------------------------------------------------------------------------------
  Task / Subroutine                                          Time (Seconds)
--------------------------------------------------------------------------------
  Calculation of real space energy and derivatives                0.0001
--------------------------------------------------------------------------------
  Total CPU time                                                  0.0044
--------------------------------------------------------------------------------


  Job Finished at 13:37.37 16th October    2023                               

