********************************************************************************
*                       GENERAL UTILITY LATTICE PROGRAM                        *
*                                 Julian Gale                                  *
*                       Curtin Institute for Computation                       *
*                    School of Molecular and Life Sciences                     *
*                    Curtin University, Western Australia                      *
********************************************************************************
* Version = 6.1.2 * Last modified =   3rd November 2022                        *
********************************************************************************
*  single       - perform a single point run                                   *
*  conp         - constant pressure calculation                                *
*  phonon       - calculate phonons for final geometry                         *
*  potential    - calculate electrostatic site potentials                      *
********************************************************************************

  Job Started  at 17:21.14  1st December   2023                               

  Number of CPUs =     1


  Total number of configurations input =      1

********************************************************************************
*  Input for Configuration =   1                                               *
********************************************************************************

  Formula = OMg                                                         

  Number of irreducible atoms/shells =       2


  Total number atoms/shells =       2

  Dimensionality = 3               :  Bulk   



  Cartesian lattice vectors (Angstroms) :

        5.000000    0.000000    0.000000
        0.000000    5.000000    0.000000
        0.000000    0.000000    5.000000

  Cell parameters (Angstroms/Degrees):

  a =       5.0000    alpha =  90.0000
  b =       5.0000    beta  =  90.0000
  c =       5.0000    gamma =  90.0000

  Initial cell volume =         125.000000 Angs**3

  Temperature of configuration =   0.00     K 

  Pressure of configuration =         0.000 GPa 

  Fractional coordinates of asymmetric unit :

--------------------------------------------------------------------------------
   No.  Atomic       x           y          z         Charge      Occupancy
        Label      (Frac)      (Frac)     (Frac)        (e)         (Frac)  
--------------------------------------------------------------------------------
      1 O     c    0.000000    0.000000    0.000000     0.00000    1.000000    
      2 Mg    c    0.500000    0.500000    0.500000     0.00000    1.000000    
--------------------------------------------------------------------------------


  Brillouin zone sampling points :

--------------------------------------------------------------------------------
  Point number          x          y          z            Weight
--------------------------------------------------------------------------------
        1           0.000000   0.000000   0.000000     1.00000000
--------------------------------------------------------------------------------


********************************************************************************
*  General input information                                                   *
********************************************************************************

  Species output for all configurations : 

--------------------------------------------------------------------------------
  Species    Type    Atomic    Atomic    Charge       Radii (Angs)     Library
                     Number     Mass       (e)     Cova   Ionic  VDW   Symbol
--------------------------------------------------------------------------------
    O        Core        8      16.00   0.000000   0.730  0.000  1.360          
    Mg       Core       12      24.31   0.000000   1.100  0.000  1.640          
--------------------------------------------------------------------------------


  Lattice summation method               =    Ewald          (3-D)
                                         =    Parry          (2-D)
                                         =    Saunders et al (1-D)
  Accuracy factor for lattice sums       =   12.000


  Analytic derivatives to be used

  Time limit = Infinity

  Maximum range for interatomic potentials =    100000.000000 Angstroms

  General interatomic potentials :

--------------------------------------------------------------------------------
Atom  Types   Potential      Parameter       Value         Units   Cutoffs(Ang)
  1     2                                                            Min /  Max 
--------------------------------------------------------------------------------
O    c Mg   c Buckingham    Buckingham A     200.62700    eV        0.000 10.000
                            Buckingham rho   1.3181300    Ang       
                            Buckingham C     0.0000000    eV*Ang^6  
--------------------------------------------------------------------------------

********************************************************************************
*  Output for configuration   1                                                *
********************************************************************************



  Strain-strain second derivative matrix : (eV)

    18.55762   115.41275   115.41275    -0.00000    -0.00000    -0.00000
   115.41275    18.55762   115.41275    -0.00000    -0.00000    -0.00000
   115.41275   115.41275    18.55762     0.00000     0.00000     0.00000
    -0.00000    -0.00000     0.00000    30.89507     0.00000     0.00000
    -0.00000    -0.00000     0.00000     0.00000    30.89507     0.00000
    -0.00000    -0.00000     0.00000     0.00000     0.00000    30.89507


  Internal-internal second derivative matrix : (eV/Angstrom**2)

     5.67777    -0.00000    -0.00000    -5.67777     0.00000     0.00000
    -0.00000     5.67777    -0.00000     0.00000    -5.67777     0.00000
    -0.00000    -0.00000     5.67777     0.00000     0.00000    -5.67777
    -5.67777     0.00000     0.00000     5.67777    -0.00000    -0.00000
     0.00000    -5.67777     0.00000    -0.00000     5.67777    -0.00000
     0.00000     0.00000    -5.67777    -0.00000    -0.00000     5.67777



  Components of energy : 

--------------------------------------------------------------------------------
  Interatomic potentials     =          69.01675511 eV    
  Monopole - monopole (real) =           0.00000000 eV    
  Monopole - monopole (recip)=           0.00000000 eV    
  Monopole - monopole (total)=           0.00000000 eV    
--------------------------------------------------------------------------------
  Total lattice energy       =          69.01675511 eV    
--------------------------------------------------------------------------------
  Total lattice energy       =            6659.0619 kJ/(mole unit cells)
--------------------------------------------------------------------------------


  Elastic Constant Matrix: (Units=GPa)

-------------------------------------------------------------------------------
  Indices      1         2         3         4         5         6    
-------------------------------------------------------------------------------
       1     23.7863  147.9307  147.9307   -0.0000   -0.0000   -0.0000
       2    147.9307   23.7863  147.9307   -0.0000   -0.0000   -0.0000
       3    147.9307  147.9307   23.7863    0.0000    0.0000    0.0000
       4     -0.0000   -0.0000    0.0000   39.5999    0.0000    0.0000
       5     -0.0000   -0.0000    0.0000    0.0000   39.5999   -0.0000
       6     -0.0000   -0.0000    0.0000    0.0000   -0.0000   39.5999
-------------------------------------------------------------------------------


  Elastic Compliance Matrix: (Units=1/GPa)

-------------------------------------------------------------------------------
  Indices      1         2         3         4         5         6    
-------------------------------------------------------------------------------
       1   -0.004327  0.003728  0.003728 -0.000000 -0.000000 -0.000000
       2    0.003728 -0.004327  0.003728 -0.000000 -0.000000 -0.000000
       3    0.003728  0.003728 -0.004327  0.000000  0.000000  0.000000
       4   -0.000000 -0.000000  0.000000  0.025253 -0.000000 -0.000000
       5   -0.000000 -0.000000  0.000000 -0.000000  0.025253  0.000000
       6   -0.000000 -0.000000  0.000000 -0.000000  0.000000  0.025253
-------------------------------------------------------------------------------

  Mechanical properties :

-------------------------------------------------------------------------------
  Convention :                    Reuss         Voigt         Hill
-------------------------------------------------------------------------------
  Bulk  Modulus (GPa)     =     106.54921     106.54921     106.54921
  Shear Modulus (GPa)     =     114.84404      -1.06896      56.88754
-------------------------------------------------------------------------------
  Velocity S-wave (km/s)  =      14.64451      -1.41287      10.30693
  Velocity P-wave (km/s)  =      22.02091      14.01107      18.45577
-------------------------------------------------------------------------------
  Compressibility (1/GPa) =    0.00938533
-------------------------------------------------------------------------------
  Stress axis :                     x             y             z
-------------------------------------------------------------------------------
  Youngs Moduli (GPa)     =    -231.09225    -231.09225    -231.09225
-------------------------------------------------------------------------------
  Poissons Ratio (x)      =                     0.86148       0.86148
  Poissons Ratio (y)      =       0.86148                     0.86148
  Poissons Ratio (z)      =       0.86148       0.86148
-------------------------------------------------------------------------------


  Piezoelectric Strain Matrix: (Units=C/m**2)

-------------------------------------------------------------------------------
  Indices      1         2         3         4         5         6    
-------------------------------------------------------------------------------
       x    -0.00000  -0.00000  -0.00000  -0.00000  -0.00000  -0.00000
       y    -0.00000  -0.00000  -0.00000  -0.00000  -0.00000  -0.00000
       z    -0.00000  -0.00000  -0.00000  -0.00000  -0.00000  -0.00000
-------------------------------------------------------------------------------


  Piezoelectric Stress Matrix: (Units=10**-11 C/N)

-------------------------------------------------------------------------------
  Indices      1         2         3         4         5         6    
-------------------------------------------------------------------------------
       x     0.00000   0.00000   0.00000   0.00000   0.00000   0.00000
       y     0.00000   0.00000   0.00000   0.00000   0.00000   0.00000
       z     0.00000   0.00000   0.00000   0.00000   0.00000   0.00000
-------------------------------------------------------------------------------


  Static dielectric constant tensor : 

-------------------------------------------------------------------------------
              x         y         z
-------------------------------------------------------------------------------
       x     1.00000   0.00000   0.00000
       y     0.00000   1.00000   0.00000
       z     0.00000   0.00000   1.00000
--------------------------------------------------------------------------------

  Static refractive indices : 

-------------------------------------------------------------------------------
    1 =    1.00000      2 =    1.00000      3 =    1.00000
-------------------------------------------------------------------------------


  Phonon Calculation : 

  Number of k points for this configuration =        1

--------------------------------------------------------------------------------
  K point      1 =   0.000000  0.000000  0.000000  Weight =    1.000
--------------------------------------------------------------------------------

  Frequencies (cm-1) [NB: Negative implies an imaginary mode]:

   -0.00    0.00    0.00  400.01  400.01  400.01


--------------------------------------------------------------------------------
  Phonon properties (per mole of unit cells): Temperature =      0.000 K
--------------------------------------------------------------------------------
  Zero point energy             =        0.074393 eV
--------------------------------------------------------------------------------

  Phonon density of states : 

--------------------------------------------------------------------------------
 Frequency (cm-1) Density of States                                             
--------------------------------------------------------------------------------
    0.00000 |****************************************                      0.400
    6.25016 |                                                              0.000
   12.50033 |                                                              0.000
   18.75049 |                                                              0.000
   25.00066 |                                                              0.000
   31.25082 |                                                              0.000
   37.50098 |                                                              0.000
   43.75115 |                                                              0.000
   50.00131 |                                                              0.000
   56.25148 |                                                              0.000
   62.50164 |                                                              0.000
   68.75181 |                                                              0.000
   75.00197 |                                                              0.000
   81.25213 |                                                              0.000
   87.50230 |                                                              0.000
   93.75246 |                                                              0.000
  100.00263 |                                                              0.000
  106.25279 |                                                              0.000
  112.50295 |                                                              0.000
  118.75312 |                                                              0.000
  125.00328 |                                                              0.000
  131.25345 |                                                              0.000
  137.50361 |                                                              0.000
  143.75377 |                                                              0.000
  150.00394 |                                                              0.000
  156.25410 |                                                              0.000
  162.50427 |                                                              0.000
  168.75443 |                                                              0.000
  175.00460 |                                                              0.000
  181.25476 |                                                              0.000
  187.50492 |                                                              0.000
  193.75509 |                                                              0.000
  200.00525 |                                                              0.000
  206.25542 |                                                              0.000
  212.50558 |                                                              0.000
  218.75574 |                                                              0.000
  225.00591 |                                                              0.000
  231.25607 |                                                              0.000
  237.50624 |                                                              0.000
  243.75640 |                                                              0.000
  250.00657 |                                                              0.000
  256.25673 |                                                              0.000
  262.50689 |                                                              0.000
  268.75706 |                                                              0.000
  275.00722 |                                                              0.000
  281.25739 |                                                              0.000
  287.50755 |                                                              0.000
  293.75771 |                                                              0.000
  300.00788 |                                                              0.000
  306.25804 |                                                              0.000
  312.50821 |                                                              0.000
  318.75837 |                                                              0.000
  325.00853 |                                                              0.000
  331.25870 |                                                              0.000
  337.50886 |                                                              0.000
  343.75903 |                                                              0.000
  350.00919 |                                                              0.000
  356.25936 |                                                              0.000
  362.50952 |                                                              0.000
  368.75968 |                                                              0.000
  375.00985 |                                                              0.000
  381.26001 |                                                              0.000
  387.51018 |                                                              0.000
  393.76034 |************************************************************  0.600
--------------------------------------------------------------------------------



  Time to end of properties =       0.0044 seconds



  Electrostatic potential at atomic positions :

-------------------------------------------------------------------------------
 Site  Atomic      Potential                Derivatives (V/Angs)
 No.   Label          (V)                 x           y           z
-------------------------------------------------------------------------------
     1 O     c      0.000000           0.000000    0.000000    0.000000
     2 Mg    c      0.000000           0.000000    0.000000    0.000000
-------------------------------------------------------------------------------

  Total time to end of atomic site potentials =       0.0045 s


  Peak dynamic memory used =       1.78 MB 


  Timing analysis for GULP :

--------------------------------------------------------------------------------
  Task / Subroutine                                          Time (Seconds)
--------------------------------------------------------------------------------
  Calculation of phonons                                          0.0005
--------------------------------------------------------------------------------
  Total CPU time                                                  0.0045
--------------------------------------------------------------------------------


  FDF file written as hi.fdf


  Job Finished at 17:21.14  1st December   2023                               

