********************************************************************************
*                       GENERAL UTILITY LATTICE PROGRAM                        *
*                                 Julian Gale                                  *
*                       Curtin Institute for Computation                       *
*                    School of Molecular and Life Sciences                     *
*                    Curtin University, Western Australia                      *
********************************************************************************
* Version = 6.1.2 * Last modified =   3rd November 2022                        *
********************************************************************************

  Ewald parameters :  Eta               =     0.220395 Angs-2
                      Real space radius =    11.196897 Angs
                      Recip space radius=     4.935478 Angs-1

  Reciprocal lattice vectors :

   1.57080     0.00000     0.00000
   0.00000     1.57080     0.00000
   0.00000    -1.57080     1.57080

  Ewald parameters :  Eta               =     0.220395 Angs-2
                      Real space radius =    11.196897 Angs
                      Recip space radius=     4.935478 Angs-1

  Reciprocal lattice vectors :

   1.57080     0.00000     0.00000
   0.00000     1.57080     0.00000
   0.00000    -1.57080     1.57080

  Ewald parameters :  Eta               =     0.220395 Angs-2
                      Real space radius =    11.196897 Angs
                      Recip space radius=     4.935478 Angs-1

  Reciprocal lattice vectors :

   1.57080     0.00000     0.00000
   0.00000     1.57080     0.00000
   0.00000    -1.57080     1.57080
*  single       - perform a single point run                                   *
*  nosymmetry   - turn off symmetry after initial structure generation         *
*  full         - generate full unit cell when symmetry is removed             *
********************************************************************************
* Example of defect impurity calc : Li substituted into MgO                    *
********************************************************************************


  Job Started  at 20:40.34 16th August     2023                               

  Number of CPUs =     1


  Total number of configurations input =      1

  Ewald parameters :  Eta               =     0.220395 Angs-2
                      Real space radius =    11.196897 Angs
                      Recip space radius=     4.935478 Angs-1

  Reciprocal lattice vectors :

   1.57080     0.00000     0.00000
   0.00000     1.57080     0.00000
   0.00000    -1.57080     1.57080

  Ewald parameters :  Eta               =     0.235803 Angs-2
                      Real space radius =    10.824888 Angs
                      Recip space radius=     5.105091 Angs-1

  Reciprocal lattice vectors :

   1.57080     0.00000     0.00000
   0.00000     1.57080     0.00000
   0.00000    -1.57080     1.57080

  Ewald parameters :  Eta               =     0.235803 Angs-2
                      Real space radius =    10.824888 Angs
                      Recip space radius=     5.105091 Angs-1

  Reciprocal lattice vectors :

   1.57080     0.00000     0.00000
   0.00000     1.57080     0.00000
   0.00000    -1.57080     1.57080

  Ewald parameters :  Eta               =     0.235803 Angs-2
                      Real space radius =    10.824888 Angs
                      Recip space radius=     5.105091 Angs-1

  Reciprocal lattice vectors :

   1.57080     0.00000     0.00000
   0.00000     1.57080     0.00000
   0.00000    -1.57080     1.57080

  Ewald parameters :  Eta               =     0.235803 Angs-2
                      Real space radius =    10.824888 Angs
                      Recip space radius=     5.105091 Angs-1

  Reciprocal lattice vectors :

   1.57080     0.00000     0.00000
   0.00000     1.57080     0.00000
   0.00000    -1.57080     1.57080

********************************************************************************
*  Input for Configuration =   1                                               *
********************************************************************************

  Formula = OMg                                                         

  Number of irreducible atoms/shells =       3


  Total number atoms/shells =       3

  Dimensionality = 3               :  Bulk   



  Cartesian lattice vectors (Angstroms) :

        4.000000    0.000000    0.000000
        0.000000    4.000000    4.000000
        0.000000    0.000000    4.000000

  Cell parameters (Angstroms/Degrees):

  a =       4.0000    alpha =  45.0000
  b =       5.6569    beta  =  90.0000
  c =       4.0000    gamma =  90.0000

  Initial cell volume =          64.000000 Angs**3

  Temperature of configuration =   0.00     K 

  Pressure of configuration =         0.000 GPa 

  Fractional coordinates of asymmetric unit :

--------------------------------------------------------------------------------
   No.  Atomic       x           y          z         Charge      Occupancy
        Label      (Frac)      (Frac)     (Frac)        (e)         (Frac)  
--------------------------------------------------------------------------------
      1 O     c    0.500000    0.500000    0.500000    -2.00000    1.000000    
      2 Mg    c    0.000000    0.000000    0.000000     2.00000    1.000000    
      3 O     s    0.500000    0.500000    0.500000     0.00000    1.000000    
--------------------------------------------------------------------------------



********************************************************************************
*  General input information                                                   *
********************************************************************************

  Species output for all configurations : 

--------------------------------------------------------------------------------
  Species    Type    Atomic    Atomic    Charge       Radii (Angs)     Library
                     Number     Mass       (e)     Cova   Ionic  VDW   Symbol
--------------------------------------------------------------------------------
    O        Core        8      16.00  -2.000000   0.730  0.000  1.360          
    Mg       Core       12      24.31   2.000000   1.100  0.000  1.640          
    O        Shell       8       0.00   0.000000   0.730  0.000  0.000          
    Li       Core        3       0.00   0.000000   0.680  0.000  0.000          
--------------------------------------------------------------------------------


  Lattice summation method               =    Ewald          (3-D)
                                         =    Parry          (2-D)
                                         =    Saunders et al (1-D)
  Accuracy factor for lattice sums       =   12.000


  Analytic derivatives to be used

  Time limit = Infinity

  Maximum range for interatomic potentials =    100000.000000 Angstroms

  General interatomic potentials :

--------------------------------------------------------------------------------
Atom  Types   Potential      Parameter       Value         Units   Cutoffs(Ang)
  1     2                                                            Min /  Max 
--------------------------------------------------------------------------------
Mg   c O    s Buckingham    Buckingham A     1280.0000    eV        0.000  8.000
                            Buckingham rho  0.30000000    Ang       
                            Buckingham C     0.0000000    eV*Ang^6  
--------------------------------------------------------------------------------
Li   c O    s Buckingham    Buckingham A     816.30000    eV        0.000  8.000
                            Buckingham rho  0.26086000    Ang       
                            Buckingham C     0.0000000    eV*Ang^6  
--------------------------------------------------------------------------------
O    s O    s Buckingham    Buckingham A     1280.0000    eV        0.000 10.000
                            Buckingham rho  0.30000000    Ang       
                            Buckingham C     27.880000    eV*Ang^6  
--------------------------------------------------------------------------------
O    c O    s Spring (c-s)  Spring k 2       74.920000    eV*Ang^-2 0.000  0.800
                            Spring k 4       0.0000000    eV*Ang^-4 
--------------------------------------------------------------------------------

********************************************************************************
*  Output for configuration   1                                                *
********************************************************************************


  Ewald parameters :  Eta               =     0.235803 Angs-2
                      Real space radius =    10.824888 Angs
                      Recip space radius=     5.105091 Angs-1

  Reciprocal lattice vectors :

   1.57080     0.00000     0.00000
   0.00000     1.57080     0.00000
   0.00000    -1.57080     1.57080

  Ewald parameters :  Eta               =     0.235803 Angs-2
                      Real space radius =    10.824888 Angs
                      Recip space radius=     5.105091 Angs-1

  Reciprocal lattice vectors :

   1.57080     0.00000     0.00000
   0.00000     1.57080     0.00000
   0.00000    -1.57080     1.57080

  Components of energy : 

--------------------------------------------------------------------------------
  Interatomic potentials     =           0.39103661 eV    
  Monopole - monopole (real) =          -3.78403870 eV    
  Monopole - monopole (recip)=         -28.68419020 eV    
  Monopole - monopole (total)=         -32.46822890 eV    
--------------------------------------------------------------------------------
  Total lattice energy       =         -32.07719229 eV    
--------------------------------------------------------------------------------
  Total lattice energy       =           -3094.9587 kJ/(mole unit cells)
--------------------------------------------------------------------------------

  Peak dynamic memory used =       1.79 MB 


  Timing analysis for GULP :

--------------------------------------------------------------------------------
  Task / Subroutine                                          Time (Seconds)
--------------------------------------------------------------------------------
--------------------------------------------------------------------------------
  Total CPU time                                                  0.0043
--------------------------------------------------------------------------------


  Job Finished at 20:40.34 16th August     2023                               

